129
Lattice="17.5434 1.33894e-08 -9.00148e-09 8.77168 15.193 1.66403e-08 -1.8112376156046823e-08 4.911985867143635e-08 35.77314803197369" Properties=species:S:1:pos:R:3:tags:I:1:forces:R:3:charge:R:1 energy=-12702.724457516937 free_energy=-12702.724457516937 dipole="0.3942060652631674 2.886722770842528 -0.21150316507466982" stress="0.0003805934293738881 -1.1591930087304957e-05 1.9374156470941985e-06 -1.1591930087304957e-05 0.0004047997280528534 -1.9391882086579883e-06 1.9374156470941985e-06 -1.9391882086579883e-06 -0.009436964696460524" pbc="T T F"
Au       1.46195000       0.84406000      10.00000001        3       0.01023792      -0.00199865      -0.39446282       0.01786016
Au       4.38584000       0.84406000      10.00000001        3      -0.00522046       0.00464911      -0.37715825       0.01824365
Au       7.30974000       0.84406000      10.00000001        3      -0.00766185       0.00779269      -0.38227224       0.01753109
Au       2.92389000       3.37622000      10.00000001        3       0.01152808      -0.01279122      -0.38409803       0.01815452
Au       5.84779000       3.37622000      10.00000001        3       0.00419205       0.00197908      -0.39404540       0.01772216
Au       8.77168000       3.37622000      10.00000001        3      -0.00593201       0.01196051      -0.36585652       0.01687411
Au       4.38584000       5.90839000      10.00000001        3       0.01515303       0.00237184      -0.38123106       0.01831475
Au       7.30974000       5.90839000      10.00000001        3      -0.00036036      -0.00286602      -0.37999944       0.01651363
Au      10.23363000       5.90839000      10.00000001        3      -0.02934573       0.00959122      -0.37441701       0.01843706
Au       0.00000000       1.68811000      12.42010001        2       0.00773207      -0.00302534      -0.00537147      -0.03716117
Au       2.92389000       1.68811000      12.42010001        2      -0.03554806       0.00479856      -0.00943605      -0.03639467
Au       5.84779000       1.68811000      12.42010001        2       0.03431274      -0.00450524       0.05149381      -0.04504527
Au       1.46195000       4.22028000      12.42010001        2       0.01120650      -0.00330745      -0.00037563      -0.03738602
Au       4.38584000       4.22028000      12.42010001        2      -0.01367377       0.02320461      -0.00328089      -0.03529313
Au       7.30974000       4.22028000      12.42010001        2      -0.00784236      -0.02428804       0.02339208      -0.04076097
Au       2.92389000       6.75245000      12.42010001        2       0.00565245      -0.00790185      -0.00288011      -0.03705118
Au       5.84779000       6.75245000      12.42010001        2      -0.00986809       0.01093798      -0.00451468      -0.03687380
Au       8.77168000       6.75245000      12.42010001        2      -0.02124273       0.01486013      -0.01920807      -0.03661177
Au       0.00000000      -0.00000000      14.84021001        1      -0.00187654       0.00764439       0.34351601       0.02053450
Au       2.92389000      -0.00000000      14.84021001        1      -0.02149215      -0.00110324       0.37073932       0.01579492
Au       5.84779000      -0.00000000      14.84021001        1      -0.44559418      -0.20653408       0.36545574       0.11462815
Au       1.46195000       2.53217000      14.84021001        1       0.01357534      -0.00076763       0.35093251       0.02170189
Au       4.38584000       2.53217000      14.84021001        1      -0.06739018       0.03647154       0.33656721       0.03440307
Au       7.30974000       2.53217000      14.84021001        1      -0.01117769       0.45934744       0.36774731       0.12047796
Au       2.92389000       5.06433000      14.84021001        1      -0.00884664      -0.00098010       0.34626765       0.02128113
Au       5.84779000       5.06433000      14.84021001        1      -0.00211188       0.00760290       0.36703115       0.01604249
Au       8.77168000       5.06433000      14.84021001        1      -0.01485269       0.01395859       0.39088832       0.01124876
Au       5.84779000       8.44056000      10.00000001        3       0.01215541      -0.01059763      -0.40514617       0.01809953
Au       8.77168000       8.44056000      10.00000001        3      -0.00379792      -0.01117974      -0.40312207       0.01749731
Au      11.69558000       8.44056000      10.00000001        3      -0.01514404       0.01959795      -0.35365435       0.01810012
Au       7.30974000      10.97273000      10.00000001        3       0.00219374      -0.01085065      -0.37675004       0.01962697
Au      10.23363000      10.97273000      10.00000001        3       0.00508097       0.00622078      -0.39916079       0.01738668
Au      13.15753000      10.97273000      10.00000001        3      -0.02114694       0.00770328      -0.35505957       0.01720609
Au       8.77168000      13.50489000      10.00000001        3       0.01702764      -0.00704719      -0.38505754       0.01883320
Au      11.69558000      13.50489000      10.00000001        3       0.01084522      -0.00564849      -0.38214594       0.01597166
Au      14.61947000      13.50489000      10.00000001        3      -0.02785099       0.00385352      -0.37017806       0.01897155
Au       4.38584000       9.28461000      12.42010001        2       0.00953002      -0.00275076      -0.00404237      -0.03633775
Au       7.30974000       9.28461000      12.42010001        2       0.00140722      -0.01237405       0.00964595      -0.03645567
Au      10.23363000       9.28461000      12.42010001        2      -0.02812918       0.02148339      -0.01302770      -0.03609640
Au       5.84779000      11.81678000      12.42010001        2      -0.00234203       0.00483138       0.00128366      -0.03654046
Au       8.77168000      11.81678000      12.42010001        2       0.00715508       0.00335706       0.00658563      -0.03662145
Au      11.69558000      11.81678000      12.42010001        2      -0.03931968       0.00507995      -0.02863373      -0.03709927
Au       7.30974000      14.34895000      12.42010001        2      -0.00117470      -0.00566107       0.00502269      -0.03612853
Au      10.23363000      14.34895000      12.42010001        2      -0.00249299       0.00101751       0.00268334      -0.03667518
Au      13.15753000      14.34895000      12.42010001        2       0.00141593       0.02559471       0.02762484      -0.04026597
Au       4.38584000       7.59650000      14.84021001        1       0.01635641      -0.01087496       0.34296440       0.02181862
Au       7.30974000       7.59650000      14.84021001        1       0.00232297       0.01753098       0.34991074       0.02180346
Au      10.23363000       7.59650000      14.84021001        1      -0.08958561       0.03232805       0.34270129       0.03599497
Au       5.84779000      10.12867000      14.84021001        1      -0.01140799       0.00180588       0.34326495       0.02039415
Au       8.77168000      10.12867000      14.84021001        1       0.00069224      -0.00769932       0.34546478       0.02094480
Au      11.69558000      10.12867000      14.84021001        1      -0.03184509       0.02787894       0.38570533       0.01198208
Au       7.30974000      12.66084000      14.84021001        1      -0.00075344      -0.00094769       0.33833417       0.02002564
Au      10.23363000      12.66084000      14.84021001        1      -0.00424795      -0.00525627       0.35035631       0.02216745
Au      13.15753000      12.66084000      14.84021001        1      -0.08470539       0.03626013       0.36774060       0.03129146
Au      10.23363000       0.84406000      10.00000001        3       0.00093684       0.00804961      -0.36287830       0.01793665
Au      13.15753000       0.84406000      10.00000001        3      -0.00249391       0.00079645      -0.38021199       0.01775754
Au      16.08142000       0.84406000      10.00000001        3       0.00494784      -0.00146047      -0.36791703       0.01865237
Au      11.69558000       3.37622000      10.00000001        3      -0.01712799      -0.01447031      -0.35582807       0.01878991
Au      14.61947000       3.37622000      10.00000001        3       0.00519122      -0.01355473      -0.36993924       0.01895835
Au      17.54337000       3.37622000      10.00000001        3       0.00359423      -0.00104143      -0.37354290       0.01723337
Au      13.15753000       5.90839000      10.00000001        3      -0.00393716       0.00396976      -0.38415366       0.01953035
Au      16.08142000       5.90839000      10.00000001        3       0.01497996       0.00966369      -0.36194544       0.01885122
Au      19.00532000       5.90839000      10.00000001        3       0.00380700      -0.00187483      -0.38108108       0.01811257
Au       8.77168000       1.68811000      12.42010001        2      -0.03636763      -0.01461962       0.04165243      -0.04556800
Au      11.69558000       1.68811000      12.42010001        2       0.01831922      -0.02320953      -0.02037308      -0.03637219
Au      14.61947000       1.68811000      12.42010001        2       0.01346086      -0.02146634      -0.00830011      -0.03684748
Au      10.23363000       4.22028000      12.42010001        2       0.03135922       0.03429487       0.02629786      -0.03998499
Au      13.15753000       4.22028000      12.42010001        2      -0.00295059       0.03452918       0.07080392      -0.04560681
Au      16.08142000       4.22028000      12.42010001        2      -0.01433621       0.00167747       0.03720939      -0.04134464
Au      11.69558000       6.75245000      12.42010001        2       0.02843946      -0.02446166       0.05584052      -0.04551119
Au      14.61947000       6.75245000      12.42010001        2      -0.04398009      -0.03621296       0.05135119      -0.04503866
Au      17.54337000       6.75245000      12.42010001        2       0.04181817      -0.01894773      -0.02203061      -0.03653833
Au       8.77168000      -0.00000000      14.84021001        1       0.44231235      -0.20263152       0.35906385       0.11546448
Au      11.69558000      -0.00000000      14.84021001        1       0.03110066      -0.00173331       0.38023813       0.01607720
Au      14.61947000      -0.00000000      14.84021001        1      -0.00236760       0.00150458       0.35216894       0.02047994
Au      10.23363000       2.53217000      14.84021001        1       0.06151878       0.01634427       0.35563668       0.02983021
Au      13.15753000       2.53217000      14.84021001        1      -0.00108597      -0.08042013       0.34580491       0.03435417
Au      16.08142000       2.53217000      14.84021001        1       0.00595810      -0.02366732       0.37094838       0.01519241
Au      11.69558000       5.06433000      14.84021001        1      -0.40753018      -0.23228954       0.34869746       0.12053636
Au      14.61947000       5.06433000      14.84021001        1       0.41762059      -0.22813484       0.36930229       0.11921019
Au      17.54337000       5.06433000      14.84021001        1      -0.00063836       0.00778792       0.38275010       0.01587601
Au      14.61947000       8.44056000      10.00000001        3       0.00224565       0.00184681      -0.35421862       0.01931247
Au      17.54337000       8.44056000      10.00000001        3      -0.00015566      -0.01561099      -0.36932519       0.01875198
Au      20.46726000       8.44056000      10.00000001        3       0.00605320       0.00367214      -0.36885876       0.01757204
Au      16.08142000      10.97273000      10.00000001        3      -0.00622556       0.00631743      -0.38246879       0.01909510
Au      19.00532000      10.97273000      10.00000001        3       0.02076472       0.00851434      -0.36746881       0.01828527
Au      21.92921000      10.97273000      10.00000001        3      -0.00108823       0.00374236      -0.39230791       0.01793270
Au      17.54337000      13.50489000      10.00000001        3       0.01128591       0.00309801      -0.34984330       0.01945188
Au      20.46726000      13.50489000      10.00000001        3      -0.00428085      -0.00978739      -0.37154893       0.01650121
Au      23.39116000      13.50489000      10.00000001        3      -0.00782377      -0.00912657      -0.39255883       0.01862688
Au      13.15753000       9.28461000      12.42010001        2       0.01309527      -0.01400480       0.06842223      -0.04478863
Au      16.08142000       9.28461000      12.42010001        2       0.01192159       0.05860425       0.06090495      -0.04517369
Au      19.00532000       9.28461000      12.42010001        2      -0.00810881       0.00662381       0.03831185      -0.04136893
Au      14.61947000      11.81678000      12.42010001        2       0.02870284      -0.03519094       0.04450647      -0.04534839
Au      17.54337000      11.81678000      12.42010001        2      -0.02162703      -0.04116712       0.05627793      -0.04508343
Au      20.46726000      11.81678000      12.42010001        2       0.02859243      -0.00834117      -0.02138750      -0.03713904
Au      16.08142000      14.34895000      12.42010001        2      -0.00090297       0.00931354       0.10878447      -0.04846395
Au      19.00532000      14.34895000      12.42010001        2      -0.00382814       0.03100886       0.03280973      -0.04056852
Au      21.92921000      14.34895000      12.42010001        2       0.00583993       0.00122474       0.00234212      -0.03757853
Au      13.15753000       7.59650000      14.84021001        1      -0.00935675       0.44819857       0.36174183       0.11447927
Au      16.08142000       7.59650000      14.84021001        1       0.08188806      -0.05298183       0.33426105       0.04725009
Au      19.00532000       7.59650000      14.84021001        1      -0.00221099      -0.00688626       0.37597929       0.01630575
Au      14.61947000      10.12867000      14.84021001        1      -0.37598548      -0.20913472       0.37887394       0.11301814
Au      17.54337000      10.12867000      14.84021001        1       0.39513021      -0.23866817       0.37684296       0.11858199
Au      20.46726000      10.12867000      14.84021001        1       0.02474671       0.01411710       0.37158511       0.01605733
Au      16.08142000      12.66084000      14.84021001        1      -0.00835986       0.39451406       0.30444878       0.13618934
Au      19.00532000      12.66084000      14.84021001        1       0.08786105       0.02122308       0.36034898       0.02983363
Au      21.92921000      12.66084000      14.84021001        1       0.01077400      -0.01189304       0.35679551       0.02168799
O        7.31198748       0.82944283      16.63435292        0      -0.00113352       0.00022678      -0.00006060      -0.56615310
C        7.31771943       0.81288312      18.02508991        0      -0.00428330       0.00151305       0.00073226       0.19937908
O       13.15277609       5.90931228      16.63563645        0       0.00050998      -0.00038271      -0.00090600      -0.56652525
C       13.15215982       5.92653213      18.02623770        0       0.00346688      -0.00041934       0.00555179       0.19614684
O       16.08085325      11.00100522      16.63462571        0      -0.00050306      -0.00224529       0.00269633      -0.56359914
C       16.06520616      11.02144379      18.02523057        0       0.00295130      -0.00009562      -0.00082179       0.19820891
H        8.19955505       1.33997792      18.41515007        0       0.00082855      -0.00166122       0.00155344       0.02111543
H        6.41950218       1.30653725      18.42203315        0       0.00488951      -0.00382419      -0.00233787       0.02147495
H        7.33872225      -0.21899955      18.40203086        0      -0.00245446      -0.00186811      -0.00264525       0.02265682
H       14.03588039       6.45608987      18.40846323        0      -0.00041508      -0.00202023      -0.00355839       0.02364347
H       12.25557912       6.43416438      18.40806684        0      -0.00097804       0.00062597       0.00084016       0.02198069
H       13.16428090       4.90314343      18.42651460        0       0.00020757       0.00002148       0.00111158       0.02105917
H       16.94147313      11.55714926      18.41602091        0       0.00030650      -0.00148190      -0.00212616       0.02190419
H       15.16146032      11.52388186      18.39669418        0       0.00021594       0.00136195       0.00032640       0.02245466
H       16.07977664       9.99847919      18.42614666        0      -0.00088959       0.00223490      -0.00051705       0.02372103
C        9.88351254       4.73643767      24.97722584        0      -0.00071289      -0.00003907       0.00049835       0.17653611
H       10.80466486       4.34568869      25.43324936        0       0.00027457      -0.00050630       0.00126658       0.00862742
O       10.14167868       5.85564622      24.16149681        0       0.00488609      -0.00067647      -0.00231599      -0.56283836
H        9.39877934       3.92628118      24.41337551        0       0.00011068       0.00062641      -0.00086264       0.00887111
H        9.20918749       5.06132339      25.77314803        0       0.00028386      -0.00060875      -0.00062465       0.03214881
H       10.74007418       5.61081869      23.44518538        0      -0.00484950       0.00081361       0.00065068       0.33665504
